
#(C) 2017 by FIZ Karlsruhe - Leibniz Institute for Information Infrastructure.  All rights reserved.
data_35244-ICSD
_database_code_ICSD 35244
_audit_creation_date 1982-12-31
_audit_update_record 2007-08-01
_chemical_name_systematic 'Diiron(III) titanium oxide'
_chemical_formula_structural 'Fe2 Ti O5'
_chemical_formula_sum 'Fe2 O5 Ti1'
_chemical_name_structure_type Pseudobrookite-Fe2TiO5
_exptl_crystal_density_diffrn 4.36
_publ_section_title

;
Zum Problem der Metallverteilung in Pseudobrookiten: Fe Al Ti O5 und Fe2 Ti O5
;
loop_
_citation_id
_citation_journal_full
_citation_year
_citation_journal_volume
_citation_page_first
_citation_page_last
_citation_journal_id_ASTM
primary 'Zeitschrift fuer Anorganische und Allgemeine Chemie (1950) (DE)' 1982
494 98 102 ZAACAB
loop_
_publ_author_name
'Tiedemann, P.'
'Mueller Buschbaum, H.'
_cell_length_a 3.739
_cell_length_b 9.779
_cell_length_c 9.978
_cell_angle_alpha 90.
_cell_angle_beta 90.
_cell_angle_gamma 90.
_cell_volume 364.83
_cell_formula_units_Z 4
_symmetry_space_group_name_H-M 'C m c m'
_symmetry_Int_Tables_number 63
_refine_ls_R_factor_all 0.058
loop_
_symmetry_equiv_pos_site_id
_symmetry_equiv_pos_as_xyz
1 '-x, y, -z+1/2'
2 '-x, -y, z+1/2'
3 '-x, y, z'
4 '-x, -y, -z'
5 'x, -y, z+1/2'
6 'x, y, -z+1/2'
7 'x, -y, -z'
8 'x, y, z'
9 '-x+1/2, y+1/2, -z+1/2'
10 '-x+1/2, -y+1/2, z+1/2'
11 '-x+1/2, y+1/2, z'
12 '-x+1/2, -y+1/2, -z'
13 'x+1/2, -y+1/2, z+1/2'
14 'x+1/2, y+1/2, -z+1/2'
15 'x+1/2, -y+1/2, -z'
16 'x+1/2, y+1/2, z'
loop_
_atom_type_symbol
_atom_type_oxidation_number
Fe3+ 3
Ti4+ 4
Fe3+ 3
Ti4+ 4
O2- -2
loop_
_atom_site_label
_atom_site_type_symbol
_atom_site_symmetry_multiplicity
_atom_site_Wyckoff_symbol
_atom_site_fract_x
_atom_site_fract_y
_atom_site_fract_z
_atom_site_B_iso_or_equiv
_atom_site_occupancy
_atom_site_attached_hydrogens
Fe1 Fe3+ 8 f 0 0.136 0.5642 0.46 0.6667 0
Ti1 Ti4+ 8 f 0 0.136 0.5642 0.46 0.3333 0
Fe2 Fe3+ 4 c 0 0.189 0.25 0.37 0.6667 0
Ti2 Ti4+ 4 c 0 0.189 0.25 0.37 0.3333 0
O1 O2- 4 c 0 0.766 0.25 0.73 1. 0
O2 O2- 8 f 0 0.048 0.117 0.62 1. 0
O3 O2- 8 f 0 0.311 0.07 0.66 1. 0
#End of TTdata_35244-ICSD